# vtk DataFile Version 3.0
#This file was generated 
ASCII
DATASET UNSTRUCTURED_GRID

POINTS 8 double
-5 -5 -5
5 -5 -5
-5 5 -5
5 5 -5
-5 -5 5
5 -5 5
-5 5 5
5 5 5

CELLS 1 9
8	0	1	3	2	4	5	7	6

CELL_TYPES 1
 12
POINT_DATA 8
SCALARS level double 1
LOOKUP_TABLE default
0 0 0 0 0 0 0 0 
SCALARS manifold double 1
LOOKUP_TABLE default
-1 -1 -1 -1 -1 -1 -1 -1 
SCALARS material double 1
LOOKUP_TABLE default
0 0 0 0 0 0 0 0 
SCALARS subdomain double 1
LOOKUP_TABLE default
0 0 0 0 0 0 0 0 
SCALARS level_subdomain double 1
LOOKUP_TABLE default
0 0 0 0 0 0 0 0 
