LAMMPS Description

     2  atoms

     2  atom types

  0.0 8000.0 xlo xhi
  0.0 8000.0 ylo yhi
  0.0 8000.0 zlo zhi

Masses

      1		1.327
      2     2.000

Atoms # full

1 1 1 +1 1.2 2.09 0.8
2 2 2 -1 1.2 2.99 0.8

