LAMMPS Description

     5  atoms
     0  bonds
     0  angles
     0  dihedrals
     0  impropers

     5  atom types

  0.0 8.0 xlo xhi
  0.0 8.0 ylo yhi
  0.0 8.0 zlo zhi

Masses

      1		22.989
      2 	35.453
      3		22.989
      4 	35.453
      5		22.989


Atoms # full

1 1 3 1.0 0.0 0.0 0.0
2 1 2 -1.0 1.0 0.0 0.0
3 1 1 1.0 1.0 1.0 0.0
4 1 5 -1.0 0.0 1.0 0.0
5 1 4 1.0 1.0 0.0 1.0

