NaCl_8_molten_333.data (written by ASE) + shell  Na x=0.5 (1u3) Volume Expanded

16    atoms
8     bonds
0     angles
0     dihedrals

4     atom types
2     bond types
0     angle types
0     dihedral types

0.0 8.031990 xlo xhi
0.0 8.031990 ylo yhi
0.0 8.031990 zlo zhi


Masses

1 20.690784
2 31.90500
3 2.298976
4 3.54500

Atoms 

1    1    2   1.5005    0.0000000000   0.0000000000   0.0000000000
2    1    4  -2.5005    0.0000000000   0.0000000000   0.0000000000
3    1    2   1.5005    0.0000000000   4.0159950000   4.0159950000
4    1    4  -2.5005    0.0000000000   4.0159950000   4.0159950000
5    1    2   1.5005    4.0159950000   0.0000000000   4.0159950000
6    1    4  -2.5005    4.0159950000   0.0000000000   4.0159950000
7    1    2   1.5005    4.0159950000   4.0159950000   0.0000000000
8    1    4  -2.5005    4.0159950000   4.0159950000   0.0000000000
9    1    1   1.5056    4.0159950000   4.0159950000   4.0159950000
10   1    3  -0.5056    4.0159950000   4.0159950000   4.0159950000
11   1    1   1.5056    4.0159950000   0.0000000000   0.0000000000
12   1    3  -0.5056    4.0159950000   0.0000000000   0.0000000000
13   1    1   1.5056    0.0000000000   4.0159950000   0.0000000000
14   1    3  -0.5056    0.0000000000   4.0159950000   0.0000000000
15   1    1   1.5056    0.0000000000   0.0000000000   4.0159950000
16   1    3  -0.5056    0.0000000000   0.0000000000   4.0159950000


Bonds

1     2     1     2   
2     2     3     4   
3     2     5     6   
4     2     7     8   
5     1     9     10  
6     1     11    12  
7     1     13    14  
8     1     15    16  


CS-Info

1   1   
2   1   
3   2   
4   2   
5   3   
6   3   
7   4   
8   4   
9   5   
10  5   
11  6   
12  6   
13  7   
14  7   
15  8   
16  8   
