NaCl_1x1x1_molecule.data (written by ASE) 

8 	 atoms 
2  atom types
0.0                       2  xlo xhi
0.0                       2  ylo yhi
0.0                       2  zlo zhi


Masses 

     2      22.989769280000001
     1      35.450000000000003


Atoms 

     1   1   2   1.0                       0                       0                       0
     2   1   1  -1.0                       1                       0                       0
     3   1   2   1.0                       0                       1                       1
     4   1   1  -1.0                       1                       1                       1
     5   1   2   1.0                       1                       0                       1
     6   1   1  -1.0                       0                       0                       1
     7   1   2   1.0                       1                       1                       0
     8   1   1  -1.0                       0                       1                       0
