# vtk DataFile Version 3.0
Triangulation generated with deal.II
ASCII
DATASET UNSTRUCTURED_GRID
POINTS 8 double
-5 -5 -5
5 -5 -5
-5 5 -5
5 5 -5
-5 -5 5
5 -5 5
-5 5 5
5 5 5

CELLS 6 34
8 0 1 5 4 2 3 7 6
4 0 4 5 1
4 0 1 3 2
4 1 3 7 5
4 2 6 7 3
4 4 5 7 6

CELL_TYPES 6
12 
9 9 9 9 9 


CELL_DATA 6
SCALARS MaterialID int 1
LOOKUP_TABLE default
0 
2 4 1 3 5 


SCALARS ManifoldID int 1
LOOKUP_TABLE default
-1 
-1 -1 -1 -1 -1 

